 Program PWSCF v.7.2 starts
 convergence has been achieved
 !    total energy              =     -15.21000000 Ry
 Total force =     0.000250
 End of BFGS Geometry Optimization
 JOB DONE.
